<VTKFile type='PolyData' version='1.0' byte_order='LittleEndian' header_type='UInt64'>
  <PolyData>
    <FieldData>
      <DataArray type='Float64' Name='TimeValue' NumberOfTuples='1' format='ascii' RangeMin='2000' RangeMax='2000'>
        2000
      </DataArray>
    </FieldData>
    <Piece NumberOfPoints='2102' NumberOfVerts='0' NumberOfLines='0' NumberOfStrips='0' NumberOfPolys='3774'>
      <PointData Scalars='T'>
        <DataArray type='Float64' Name='T' format='ascii' RangeMin='10.26697374016279' RangeMax='75.46580533981323'>

11.662851296249999 13.137650202300001 14.88076462125 14.922978429899999 18.0796950352 18.6074248396 17.8683858664 18.492855959200003 11.4286794452
14.695056809000002 11.394378457899998 14.7125919538 14.6674099575 11.48894085825 15.214175855800002 15.213551757300001 15.190968264249998 15.519906005400001
15.5025579277 15.5048650093 22.4042050035 22.374617426249998 18.955310121 19.17227350905 21.7261300551 22.366344280200003 21.73171619645
21.6729190809 19.1678187381 22.339904517450005 18.715191565350004 22.36416715975 18.981883771499998 21.6773585015 21.579494016750004 22.2533084115
18.451878034499998 21.4410091635 22.141221294 21.386069466 18.1990176406 22.075569282600004 21.485532719600002 17.969494588400003 11.385058419
14.7207319065 14.7320519043 11.394773272950001 15.179559363 15.445988990999998 15.147116962800004 15.419914406700004 16.9520729103 15.4649082924
19.4030107986 19.448655884100003 19.43094914595 17.025440872949996 18.6878348459 19.49174422575 17.9612122065 18.726725703400003 18.1112602058
13.6680888591 19.511896761000003 22.46155670935 22.528695102449998 21.6713763706 21.859508438849996 18.8319596652 18.92467521195 11.499178034949999
11.504127780450002 14.838488481199999 14.827033355900001 11.6208135432 11.460866844600002 11.430382622749999 14.771654065999998 15.269823446199998 15.6748540494
11.895310927800002 12.1531206816 15.252287205000002 15.642609993000002 16.064540441549997 12.355988532300001 16.06439902025 16.3033303066 16.40734567275
12.5555329989 16.49276413795 16.806224449400002 12.7514712402 12.939843479400002 16.730069079350002 17.1114116148 17.30579519165 17.567141754050002
13.198643177400001 15.18537973875 15.501949528 15.8573121742 15.853741467149998 16.303109721200002 15.8381075716 16.292259274899997 16.2955667013
15.7779653985 16.2474698385 15.748925942850002 16.218720193050004 16.6965145668 16.788905945299998 16.6898085809 17.162958090600004 17.311573840799998
17.2072091489 17.716370976 18.3332904235 18.710497831999998 18.1234613365 19.51822101775 19.491087457500004 18.720919038900004 18.135443964900002
18.78866262 19.500555798 18.201216402 18.9230583446 19.650634403599998 20.55087350875 20.617104220500003 20.440716714000004 20.365815712499998
20.4789680801 19.093074099800003 19.9607000632 20.813195071000003 20.470867932900003 20.509522515 20.650390523849996 20.5922140717 15.874804676250001
16.33244141425 17.7260697315 17.748167759550004 17.3448000635 17.38104377595 16.859586328 16.830852767400003 16.831309923 17.323016831999997
17.707812489 14.701503373000003 14.676577126200002 11.8907108088 11.8343392646 11.908775488200002 11.908754625750001 14.729606066449998 14.775445346750002
11.88177066825 14.8518422619 14.932750240799999 11.8470273488 15.126411956400002 15.150964380600001 15.4353591012 15.412445544800002 15.181023785349998
15.220547217500002 15.480460906749999 15.530146422500001 15.268858096899999 15.3546164786 15.5594969297 15.6320205636 22.1537678304 22.08538189585
21.876700800800002 21.80073946855 17.5407679288 17.6500929262 22.0221048362 17.2592885534 22.190367019800004 17.429880174600004 21.723565293600004
21.3922373342 21.64168364075 16.904201006399997 21.13937009385 21.386660699 21.079040667000005 16.527225506 21.4288118114 16.333199143799998
21.379270970049998 16.37041602715 21.13598817275 21.1854736548 15.693389064400002 15.700384159 16.0496743192 16.0019744854 15.75261220925
15.812531998750002 16.159778833249998 16.237418031 15.853811156299999 15.895148056200002 16.2633348424 16.211636079799998 16.758382115 16.88679882925
16.4712297624 17.0586335162 16.607564152200002 17.39502218175 17.0714973945 16.7212114818 17.31951579535 17.504795598500003 17.69896660675
17.1203906594 18.3806443938 18.2347423048 19.742377796699998 19.663885745 18.61447548875 19.806361743250005 20.645393781099997 20.58954877325
20.655826212 16.6083996266 16.681167741800003 17.526010224000004 17.50064627 16.83358304505 17.5343196325 18.062210561 18.119513801600004
18.3940397478 18.5371115294 17.86464769395 18.1050597926 21.249907588 21.131468966400003 20.062438460000003 20.2193690832 19.161634693000003
19.05861712 19.944656943400002 19.901056067400003 19.2111590256 18.5930429144 18.87662640735 19.871922599349997 20.850901276000002 20.624661426600003
20.5715281684 20.66530653 19.940675411249998 20.8372137984 20.2107097065 21.12396870375 20.527261062450002 21.10828061435 19.63813578855
21.2020798332 20.5839931045 21.1687290955 19.5947334475 15.629915193749998 15.5593743198 15.88577958 15.7749448605 16.10744392125
15.98114700105 16.15710646155 15.71784380835 16.0083912933 15.934939148499998 16.126600256499998 15.707518261499999 16.2941935998 16.633058337
16.3079098875 16.59020158125 16.23851421195 16.432140284950002 19.0933604667 18.881251289999998 18.5013246074 17.78465935125 17.47941707395
17.912986342499998 17.03904184125 17.1344311842 16.830204397800003 16.6436329505 17.178262848 16.3424310175 21.442015786 16.2379785405
21.4038783747 16.05435744325 21.342241305 21.3373854987 15.691531803750001 18.3711179013 11.737202679850002 14.90588629785 11.800656398500001
14.960732520999999 15.339921423749999 15.3249387072 15.3970887918 15.418613169499999 16.221794767 18.2447664545 14.6428944655 11.580831989999998
15.14465981735 15.464016460199998 15.8175217102 16.207932908300002 16.736352556 17.5106704556 14.6473652104 11.7094931984 15.116661189600002
15.4201694208 15.7435439024 18.179219584400002 18.628454056099997 19.226008448749997 20.219036999500002 19.24348249005 18.153723056800004 22.05824324305
17.78719527625 21.64335598525 16.072220764 16.680580496 17.546282404000003 21.138109846149998 17.6917184332 17.73960811175 17.9190500832
17.98592838375 18.187301430199998 15.4186153232 15.6707410736 15.2038959168 18.269336651250004 18.515218591799997 18.60298865605 18.9342083098
19.000110117300004 15.959923576 16.305949737600002 16.484062760199997 15.098179296000001 16.423487619 15.0667859344 16.52830018325 16.46853952635
16.545617176199997 16.591839617050002 15.113281670400001 16.607101644 16.661607035 14.094570582400001 12.9052585984 16.689500623599997 16.7439003986
17.1465421624 16.963837463999997 17.145010568800004 16.981123615100003 13.3220421808 14.791726948800001 17.322881574599997 12.0925970352 17.32618192795
16.809391838399996 16.847396899250004 12.4672198224 17.494954146599998 17.52197855325 15.016374768 21.119726412000002 18.4708507752 21.020957369250002
18.212432084000003 21.018785486000002 20.93831050875 20.9144290341 21.0942847584 17.918039318850003 21.212758263 18.700889925000002 21.164590632
21.299638714199997 21.2302720344 18.902315038199998 21.45946747595 19.2219904485 21.381857099549997 19.075400306099997 21.2938029738 21.3567845533
21.5343285972 19.343501997999997 21.4216418682 21.6064360008 21.489920449199996 19.4411711088 21.7498681694 19.587973734000002 21.6781191904
19.5213793648 21.560583579200003 21.634967236399998 21.89111205885 21.819713157 21.7933013205 21.7123702488 19.6421353788 19.68850704945
21.049114521 21.0047133168 20.998563048 20.959577160000002 20.672910717199997 20.7834129047 20.673610199199995 20.7899907756 20.6428329912
16.919763371200002 16.7146227856 17.066731848 20.775155577400003 20.4376749206 20.66774034515 16.394529064199997 17.13388417015 16.3160879056
15.978451952000002 20.8034984328 17.586729625300002 20.8579629841 19.4506242966 19.450145340600002 19.024299755050002 19.445553465600003 19.007087942400002
19.452150720000002 19.008475656 19.4509856114 19.9478976242 16.7261593216 17.1049772128 19.895330355850003 20.288125669 20.25963243995
20.4785946176 20.507492213650004 17.299210528 17.3459160192 20.580509144999997 20.65010605295 20.6331801396 17.334379483200003 17.2836187248
20.72470190805 20.6603200412 20.763819246700002 17.1906971712 17.7452228697 18.0076047955 18.003270270900003 18.302329424 18.30560553795
17.7335006511 18.63884754495 18.6458990433 19.02891307515 17.9864161045 18.291530670750003 17.71696246 17.709984132000002 17.973652178400002
18.277830626400004 17.724987078 17.978936364000003 18.007842573599998 18.278879778 18.3021424608 17.7629901174 17.7775426188 17.967038869
17.70350443925 17.890972714300002 17.6220981216 17.8543402632 17.69154156 17.5533754088 18.047760292799996 17.82068163615 18.0579015558
18.12265851585 18.345919234049997 18.405440125800002 18.197678062 18.2775607056 18.476551387599997 18.5504135796 18.0875260698 17.909464782
18.15672478905 17.9776277721 18.2837238804 18.0132336076 18.2093733654 17.8380360382 18.35319006795 18.356772176000003 18.6224040624
18.130131481600003 18.4324287546 18.6920275598 18.5039631282 18.759491269199998 18.82487549775 18.57187547145 17.2009797412 17.2335570884
17.154474397199998 17.138882804399998 17.211496723750003 17.27859506555 17.195643796400002 17.182720238250003 17.183410146 17.2141791836 17.18636993885
17.2247770296 17.253707301 17.280260625599997 17.21542717055 17.1791679232 17.1895309558 17.2399379792 17.2652179924 17.3101221248
17.3480028848 16.5747250577 16.5178803075 16.6311710001 16.5799063683 16.6366102291 16.68866862675 16.882228818 16.879985202
17.004655899 17.034534772199997 16.7812586448 16.755256293600002 16.906558029 16.8213485232 17.0070405978 17.2987279212 17.211278950799997
17.335072396799998 17.23838672805 17.3929956618 17.4405476718 16.8088350185 16.7537298876 16.749983988500002 16.872442092 16.876793946
16.8278254893 16.9335581304 16.946943117 17.032360488 16.999878432000003 17.075074651799998 17.111968708499997 17.120668877099998 17.1526630455
17.0063787312 17.066065104000003 17.093216772 17.146484715 17.1343414308 17.2091788902 17.3135962604 17.3522488356 17.26750559065
17.393354593199998 17.3400082968 17.4424974696 17.483830753499998 17.419523352 17.36813254365 17.302813387199997 17.433917900700003 17.276780773349998
17.495229013 17.5550097744 17.4966831468 17.55410938455 17.614219062 17.6780779911 17.4422427326 17.5523649112 17.764387075200002
17.617906651200002 17.683850933 17.4948911968 17.7510865422 17.8180085226 16.70570600305 16.7847426077 16.878060405750002 16.91403691245
16.99160989445 17.01628604145 17.133021711450002 17.141716308600003 17.3065662136 17.299712223 17.51133332485 17.497487250600003 17.198347572
17.05005418075 17.163622656500003 17.305775918250003 17.328219153600003 17.245203819 17.367200439 17.522851299 17.4950967768 17.5689878562
20.98957015325 20.9257744854 20.956431418500003 20.90357381835 21.0478169448 21.101068254 21.1520679414 21.091889365799997 21.203854456499997
21.13600717395 21.25859356985 21.184055453750002 21.382956504 21.3175909446 21.295517166 21.2368496746 21.3593749776 21.4520405312
21.5266019528 21.4299727278 21.69070903635 21.6062926794 21.5066121006 21.58917150495 20.860413188850004 20.8474621066 21.0352878384
20.930202873000002 20.962694801399998 20.894466151200003 19.452196455750002 19.8780210958 19.88178286485 20.249542141750002 20.5170344946 20.25996457485
20.53631735775 20.6794480666 20.7095105742 20.7704556716 20.812390006050002 20.8204398485 20.86953746445 18.62061054 18.620627121600002
18.643084250999998 19.031790155399996 19.449214503750003 19.01890137725 19.88947625675 19.8985270392 19.4751337176 19.913354034 19.936152106199998
18.811311714 18.8768537748 18.7451430278 19.200274006 19.1366436037 19.260322678799998 19.077224535 19.517144350499997 19.57341450435
19.97130718395 20.0181866717 19.635153507200002 19.6930947276 20.072490351400003 20.127201192 20.3187474 20.617498893 20.296552248
20.5892363952 20.342532836999997 20.6438465442 20.8549834525 20.74393716375 20.778752184000002 20.561779213750004 20.811852129000002 20.841425853599997
21.400393938 21.47680517865 21.330462195 21.2858807766 21.354946077599998 21.222588842 21.158635957399998 21.2095527084 21.113237224800002
21.0669419586 21.112702228799996 21.02838168585 20.450359495 20.4998543064 20.4073009049 20.7373771574 20.700821057000002 20.783031343199998
20.8697399172 20.994489108899998 20.670688479149998 20.899870112800002 20.9352283738 20.979190436399996 19.0653517758 19.1277301707 19.0029979748
19.430683205999998 19.4891587797 19.3738433714 19.7463339536 20.1779067328 19.317430841600004 19.7979578244 20.2269915834 19.90255154085
20.3246635914 19.849369755599998 20.2753671516 20.6473767588 20.6972022627 20.9358740052 20.9905641609 20.5984694622 20.8833675554
21.164629780800002 21.028828025600003 21.0825994484 20.8324669776 21.1401559248 21.201936612 16.5796262337 74.7891500175 16.5598767444
74.7891500175 14.822832123449999 38.9202879615 15.9767984138 14.383868055199999 16.09164151925 14.61134065735 16.126417613599997 14.4400373968
14.734743452800002 14.2095863504 16.204375030100003 14.668955803150002 16.1996337134 16.30009210815 16.2221067512 16.282469752700003 16.296881377
16.348668325800002 14.8798940512 14.9631668656 16.362212995799997 16.409618597650002 15.0228072608 18.01194502005 17.7743525058 75.53991549599999
75.35227378799999 18.028678725400002 75.7277781225 17.546275511999998 17.6121917377 17.313965361 17.7858273752 75.91575044599999 17.3639776464
76.10312631599999 17.457456140599998 17.1997040628 17.309524092 17.147099995199998 17.4014917146 16.359317057250003 16.4111913921 16.49019326265
16.50097844475 16.46362577375 16.53515486595 16.7295262495 17.063079276000003 74.977183944 16.6308807135 16.8105550944 17.425814907
75.16464165000001 17.044680639000003 16.63095077425 16.65799422375 16.7562375144 16.920510516 17.122137384 17.319509827199997 17.19539209935
17.6314529691 18.634337920500002 17.9344027232 17.124369491200003 17.073997086400002 17.1182712946 17.0486279768 16.6995402485 17.13378929265
17.2055656836 17.393865369600004 16.95617277575 17.488704536500002 18.68676938775 20.277052325750002 20.91656685175 21.266568915200004 21.07258013835
20.37151493955 18.9403052224 20.549412 21.5694749271 21.3952290269 21.6311339376 21.45606940665 21.331279951849996 21.500133031849998
21.16250237425 21.103820782 21.2218757217 21.8563426752 21.75552331535 21.9254263662 21.8287325589 22.0398544089 19.751363928849997
22.014361015899997 19.7528554311 21.998193030499998 22.0586940345 22.0403921535 21.9449905422 19.747729599 21.80240664615 22.0273386489
22.02823859555 21.983108162750003 21.80170206765 22.02789428435 21.748943370350002 22.04224516755 21.8005042842 21.87211686555 21.8709196244
21.728588779450003 21.872961976950002 21.749427774249998 21.74845896885 22.1972734767 19.86807603235 22.11657015225 19.790955927749998 22.09122285825
22.14269336545 22.2986412837 22.2591558628 22.20627104235 22.181458171350002 19.930549710250002 19.97839382535 21.46068607365 21.4503999985
21.4659704124 21.35392272545 21.03658339475 20.613231134 20.6377612399 21.46914101565 21.041442785300003 21.044682379 21.4501982122
21.4492920072 20.61341591235 20.61389709225 20.68959536325 21.9790104603 21.88728987975 22.092067083 22.1122098126 22.0636050236
21.82211908695 21.7685388288 21.68721515555 21.93702681975 22.025883167049997 21.63479336315 21.707478243049998 20.9788286974 20.9160935253
20.6063642939 20.546254745400002 21.2831370437 21.66064545195 21.617639202750002 21.56858102105 21.5146423289 21.9595164348 19.7274611172
21.8734950176 21.7759384308 21.6735286324 21.26621054 21.4270698868 21.0465499628 21.5558558352 18.418289704 18.47935143065
18.636473216800002 18.6979458138 18.3417033364 18.16485360005 18.39599490345 18.2181146985 18.53727254345 18.5925993405 18.28348185785
18.10604541295 18.8141928843 19.07147509605 18.756909641399997 19.01159296645 18.950521879300002 18.8883478652 17.8838034004 17.947182806849998
18.0431856828 17.7415128632 17.80196915805 17.5570337939 17.5840249137 17.7048190889 17.738323848900002 17.66196181255 17.85534896795
17.524839040499998 17.89832452395 18.0054566033 18.05543913315 19.31504543885 19.3766237658 19.2522060489 19.6734599662 19.7354814171
19.6104560003 19.9576721544 20.375329697599998 19.548876997599997 20.01563303685 20.428971305599998 20.1375596643 20.076350829949998 20.48649021055
20.857009057299997 20.80065914795 18.2217698024 17.6106168228 17.4857697128 20.747831272 19.1898096756 17.1288913356 17.048331431999998
17.1490140117 17.06245396935 17.0666906288 15.4410740672 16.6694900358 15.1085239662 76.10312631599999 17.0756129376 39.791500635599995
16.7744118052 14.9369027544 16.639908186 16.66867960935 16.7420491458 16.76459179275 14.682017646299999 16.995522921600003 16.8361139576
16.9960849568 16.905897827 16.814806126799997 16.83167406765 16.8900234888 16.90142838285 16.9785659673 16.9682636046 16.9777899704
17.028823507200002 16.957422336249998 16.995238551049997 17.0361500848 17.07307213975 17.110287763200002 17.03602436145 17.1513983461 17.184058422
17.1187473831 17.2034553449 17.232187640699998 17.29456565265 17.32106993955 17.26155984885 17.3482122162 17.266882836 17.36957398
17.400098827649998 17.4269827343 17.452744113450002 14.98986247185 16.793546810349998 14.7024598083 16.75606503835 16.82864997135 16.859839071249997
16.89721163325 15.1418500698 16.8273351092 16.7123506584 16.796613665600002 14.5349467236 16.92261263465 16.963028013 16.887629729849998
16.85787667 16.925399614 17.0029103268 17.0875953524 17.175093834000002 18.330384713850002 18.783134641649998 18.783861948800002 18.490755728200003
18.49322063645 18.289811152450003 18.7048506162 18.48857252375 18.2945490315 18.783751508250003 18.7918131735 18.3277777734 18.290144850449998
18.32545266435 18.2896887819 19.21885820235 19.1621507011 19.16160320085 19.16677442225 19.48453630865 19.9847764644 19.9848606079
19.9840994472 19.8677239026 19.489184421350004 19.4806628814 19.16126702925 19.9850873211 19.980437103 19.9766323791 18.445789117
18.6444837383 18.26476719235 18.8690889268 18.91957933775 19.129180326900002 18.9607726312 18.99071568405 17.35572576125 17.301532062699998
17.467532156 17.4398305292 17.413584053199997 17.2816196166 17.3455953444 17.2204622028 17.507569112800002 17.22838883625 17.294604457250003
17.164638690500002 17.18541074495 17.119210351950002 17.25330136075 17.367441640350002 17.4159122787 17.3274598861 17.45014072445 17.4958114806
17.41161889635 17.63944985795 17.589097673999998 17.5525567106 17.700846112 17.6231687768 17.74262225675 17.700843824099998 17.794383157200002
17.5475622179 17.51190544915 17.666327682800002 17.63613682495 18.32444693195 18.1811754246 18.163751898599998 18.204832452 18.3771041464
18.01239270935 18.0433453604 17.9898619248 17.8090434787 17.83478419695 17.7860736725 17.97113086585 17.9525606183 18.147024914400003
18.125667603400004 18.095292368299997 17.92961963835 19.43454481045 19.79222329245 20.1948932213 20.2476014769 78.91889796299999 17.345659095600002
40.482076140000004 14.655147403600001 17.455126338400003 78.91889796299999 17.0344615973 17.100395449700002 16.9847672134 17.052023995650003 14.995724892
16.946479351950003 15.112000350999999 16.90427035255 16.99351746795 17.09201754225 14.87146794165 17.058118493400002 14.724618173 17.17912054855
17.246210796950002 17.1586002105 17.428623000800002 17.8199391903 17.6767502376 17.6385383162 17.6387498213 17.478348694250002 17.559236523600003
17.86637275695 17.907304292400003 17.763806090099997 17.6091875967 22.480376909100002 22.450631571000002 22.4163841812 22.382126388000003 22.5081485484
22.5099011478 22.534709169600003 22.4396277969 22.487709118500003 22.48256650575 20.15820371355 22.478245515900003 20.1669371406 22.4927490393
20.12765287335 17.1596226803 15.501578958300001 17.165845134 15.474614600700002 17.189313124 17.348176624 17.31483478 15.550830288
17.319169620900002 17.1750548583 15.510961404300001 17.19228039105 17.32783219875 17.3423902848 15.547923634950003 17.22544881905 15.527792998549998
17.275341846750003 15.512374505550001 17.373101780549998 17.423786636099997 17.469245408400003 17.6208749217 17.454440931550003 17.59298785585 17.461499254
17.579340668 17.487107697 17.654647156800003 17.5091005668 17.6905039584 17.717341135 17.754142221000002 17.69174542 17.794688968
17.82714769325 17.8672817088 17.79951369645 17.845276088850003 17.9142909402 17.96324480535 17.9704632267 18.0749159748 17.9297515062
18.0341206979 17.89261949 17.993515464 18.013034685900003 18.112767281700002 18.05705465895 18.147615074850002 17.5369329852 17.5748456364
17.71531754395 17.7331113804 17.87314372385 18.00115672205 17.8830399111 18.099356538549998 18.18342688505 17.89888793095 17.76434967255
15.484053382199999 17.3326825399 17.3836456983 17.48707649715 17.55162103845 15.407656442400002 17.414718056399998 15.2129132034 17.3902849925
14.7261541146 17.6107638488 17.646845587999998 14.76561603 14.4371535231 15.1920447591 17.7969653414 17.91803649845 17.7496355078
17.870839016799998 17.68659491295 17.8130180865 15.3787884525 15.455408499299999 17.9813002906 18.02150887085 17.9332932354 18.04840969695
18.084411613999997 18.11183516315 15.5048863893 15.540651835499999 18.149788313600002 18.191374785900003 18.106485064 18.239153738 18.28487509555
18.3283851519 18.227403261150002 18.25541163855 18.36668986095 18.395066819700002 18.1931853685 18.271779137699998 18.1808090404 18.2764290682
18.15836747115 18.265993236 15.553728134999998 15.5085618897 18.377420213599997 18.35496696715 18.370085653350003 18.47651008005 18.490001665399998
18.4517249438 15.4250149383 15.343447102499999 18.0189788805 18.1320258405 18.22168621065 18.2797192231 18.41147653085 18.3082377894
18.4225565277 18.997428623650002 19.1807556578 18.7119607875 18.793399137199998 19.847834329199998 19.6998957748 20.3183725 20.29464988255
16.0909873377 15.562422107099998 17.1189258438 19.93641876255 20.128891371300003 19.817348835600004 20.0188388223 20.230080800850004 20.2958657739
20.38902068835 20.04627565095 20.1984354 18.447501786 18.398370268 18.494986932 18.6481900423 18.7036805565 18.592113132
18.53931483555 18.5757638118 18.7580626041 18.808451807100003 18.893789534 18.963929628000002 18.824689296 19.08091847 19.171660149250002
19.266270543900003 19.0364945394 19.10930735415 19.36458087615 19.464767582550003 18.6198979042 18.6043465926 18.5696155976 18.81896211975
15.3871996938 18.5967845299 18.84821844855 18.5989097853 18.87015183495 19.179554520049997 19.56910400795 19.24843522485 19.685644342649997
20.264518041899997 19.446211852450002 19.333264314 19.5659983755 19.688986738150003 19.566546538 19.6832025048 19.797057907350002 19.9164770279
20.04682937985 20.16013973805 20.280412660950002 20.6582087034 20.8821126189 20.5923048903 20.838287934 20.9385288594 21.1424627238
21.17383053285 20.73120060615 21.1222666359 21.4243956801 21.7078093908 21.38346787755 21.659855574650003 21.330990478 21.08434210215
21.027808314 21.612214176000002 21.4300768386 21.716772735450004 21.430324191300002 21.695435923650003 21.8995940089 21.9472950357 21.859193964
22.064869242 22.09583351075 22.137273326700004 21.969918361050002 21.9485388645 22.17008987415 22.164202631850003 22.280004228600003 22.245890704500002
22.354638035500003 22.223309106000002 22.338185068 22.31573336745 22.327380916350002 22.505843700099998 22.5519057723 20.05869014345 20.550998093700002
20.6387755343 20.4873076159 20.80613910645 20.737687614149998 20.89015970145 20.59680284025 21.451855885449998 21.219143514549998 21.6883125659
21.48068875875 21.69505405665 21.26801916525 21.919046810999998 22.131483392449997 21.9045442044 22.307607236 22.43710382855 22.51976122805
22.477932087400003 20.219659590400003 22.47953828 22.47418948445 22.467111624 20.235467782 22.4293488642 22.416910758 17.6260663891
18.02819728645 18.1478261055 18.25219218095 18.34390996425 18.444177710399998 19.271371933650002 19.8848317266 18.592070869449998 18.85719037865
19.292955840599998 19.80729616775 20.28897601365 19.90012603665 19.784224836000003 19.995901624000002 20.0967892294 20.182151977 20.398444838849997
20.3358396975 20.45068964445 20.568454843949997 20.712956282199997 20.300584552300002 20.21520386 20.383328770200002 20.528600871650003 20.456605774
20.46658368045 20.7910773842 20.729003721999998 20.846505288699998 20.9855658415 21.000419318949998 21.067360811249998 21.14448209315 21.3245965998
21.516440807549998 21.70948624975 21.898786666899998 18.34665003435 18.1911262753 18.2934019368 18.1434062618 18.5335185728 18.472126195199998
18.75286143225 18.9912653062 18.6787320026 18.892749361 19.2280454641 19.4543773622 19.1413539574 19.366029832 19.67513214865
19.8970164767 19.5722121222 19.800840823999998 20.1280077339 20.38024849245 20.0409750764 20.303343981799998 20.6628456815 20.9705045748
20.597759022 20.9187850596 21.28402296515 21.576221257799997 21.2470108896 21.552437377 21.8329095864 22.04674593055 21.8181238338
22.0356705022 22.20982349905 22.3262368802 22.1975246588 22.310180234 17.68290315165 17.771854552649998 17.5978345499 17.698783788
17.663773032799998 17.7632995748 17.86087655 17.954910888199997 17.8381209468 17.9216244214 18.0624997256 18.021009791 15.7531519244
17.54778173775 41.640987552199995 80.233215954 17.597693357199997 80.233215954 17.54538146185 17.7563821272 22.45058366655 20.21998159935
22.4353921632 20.2031959236 22.3736103981 22.462797285 22.401053347500003 22.344535483999998 20.230136505 22.478104803799997 20.242710436
22.472188522800003 20.238259056 22.4253263244 22.4450704622 19.138530509400002 18.767110674 19.305855261 19.304826170400002 18.76842092475
18.706437256500003 18.7661533059 19.195519806000004 19.303444206750004 18.708977578500004 18.7116590295 19.1439656468 22.48077229035 20.242726802649997
22.4592404036 21.811742058 21.540731754000003 22.027491667200003 21.809440579500002 22.017888112500003 21.538261206 22.13817520395 22.227636344549996
22.110128073299997 22.1931547126 22.004618469599997 22.162686466500002 21.9871752846 22.259924347500004 22.297413212099997 22.331265057000003 22.262355335499997
22.36187886 22.3870486058 22.287915631200004 20.537852478 20.8761213288 20.486709027 20.8448238645 20.2292959548 20.161406682000003
22.4053047922 18.532848586500002 18.351074434500003 18.6048573696 18.410562742800003 19.385973391500002 19.476183727200002 19.7087303292 19.6217999505
22.41807080265 20.17752617985 22.31552258175 22.22778531435 22.15824436125 20.2209388334 17.818222833300002 19.587265538700002 17.130257571
20.584941392999998 21.2528764128 20.833605250799998 21.782821293100003 21.738491797450003 18.65078068455 22.03048672095 22.5578889261 20.1348859701
22.55111092165 20.1392292904 22.5348463659 22.5660084298 22.5448729869 22.5302609559 20.0117300713 22.586635126 19.466166654
22.576507161600002 19.6470638336 22.5588343616 22.570304627200002 22.59106699115 19.6195572516 22.5704938586 22.5898019364 22.556431088000004
19.516926546550003 22.59374638585 18.852857146450003 22.5914331816 19.1018668746 22.5298505202 22.44625460855 22.577335841100002 18.9091825317
22.2001123956 17.2629014436 18.256385126650002 19.942176783599997 20.9163989322 16.860851908199997 17.35842654305 20.1733848673 16.564966959550002
21.07036781995 21.3452150532 18.775505274750003 21.534378154800002 21.693667395150005 21.482238242399998 19.047014586750002 19.2091424129 19.32121070965
21.542618945999997 21.569486238 21.763873438500003 21.80890994365 21.567860059799997 19.379967021700004 21.84327060535 21.868581545450002 21.5363263434
19.386401226750003 19.350058574050003 19.244283071250003 21.4753800126 21.3596385468 21.88272173545 21.87650005185 21.1476697536 21.843199904400002
19.010247700750003 20.2552909184 20.2459164336 17.6368888704 17.6820953166 20.2734305752 17.6149526212 20.939228278399998 21.0401156812
20.812614914300003 17.55029602615 20.253223873750002 21.09057157795 20.6809098276 20.5888817721 21.196126192 21.3058378825 21.324538306199997
21.4214668451 21.772107881999997 21.6186069948 21.821079409 21.68445912495 21.924407334999998 21.95699291455 22.2194197716 22.3405616065
22.2154371018 22.345050650199997 22.51959032115 20.05170453 22.557884978849998 22.531907882899997 20.053619890849998 22.553530103 22.5402130398
22.541979713550003 20.070685805100002 22.545619488999996 20.103457123400002 22.532403712799997 22.102517693099998 22.2774578637 22.417070859299997 22.51407928185
22.229714587199997 21.729088214900003 22.42683624665 21.0947451747 21.3285754077 21.2477850816 21.458058824400002 21.4010143347 21.20073991955
21.09062382925 21.418130388599998 21.5331992117 21.5218925922 21.6257993127 21.6368933451 21.7287904174 21.54932307575 21.757548714
21.879122958 21.836376183600002 21.944244698200002 22.000061057699998 22.051477028900003 22.1197268688 22.158497298300002 22.09071540675 22.2362119584
22.3487388168 22.2642451999 22.3687914208 22.4534198955 22.4682481705 22.448698717 22.2979838336 22.3122686072 22.3964566752
22.4121603596 22.2015610368 22.225738172 22.2106407841 22.1488506884 22.3483605855 22.490263897600002 22.5080225084 22.49901813005
21.5849216992 21.5333171232 21.698779132800002 21.641092176 21.650381750399998 21.7606370828 21.7320300864 21.831543967200002 21.8225148224
21.9073287928 21.776413361 21.71115906085 21.8331131971 21.8903786176 21.94686635955 21.916958265599998 21.985305157200003 22.011613782399998
22.0640591644 22.1060572256 22.143873593600002 22.100139731949998 22.0524185482 22.001515952200002 21.403952227199998 21.258438454 21.5086101208
21.564319211 20.545090200799997 20.493486166950003 20.907002774949998 20.785094350399998 20.9528004302 20.680470916650002 20.830779519300002 21.075884755199997
20.9603827056 21.088784553750003 21.231319791900003 21.391380433650003 21.5620411179 21.73453914285 21.904563824550003 22.08102099905 22.069995154500003
22.24862853525 22.39051552205 22.225603778400004 22.363121663100003 22.496224153649997 22.47244343475 21.0780322774 21.4670849404 22.073526520999998